
     Program PWSCF v.7.1 starts on 19Mar2023 at 12:46:35 

     This program is part of the open-source Quantum ESPRESSO suite
     for quantum simulation of materials; please cite
         "P. Giannozzi et al., J. Phys.:Condens. Matter 21 395502 (2009);
         "P. Giannozzi et al., J. Phys.:Condens. Matter 29 465901 (2017);
         "P. Giannozzi et al., J. Chem. Phys. 152 154105 (2020);
          URL http://www.quantum-espresso.org", 
     in publications or presentations arising from this work. More details at
     http://www.quantum-espresso.org/quote

     Parallel version (MPI & OpenMP), running on     240 processor cores
     Number of MPI processes:               120
     Threads/MPI process:                     2

     MPI processes distributed on     5 nodes
     26680 MiB available memory on the printing compute node when the environment starts
 
     Reading input from scf_B2Mg1-108064.in

     Current dimensions of program PWSCF are:
     Max number of different atomic species (ntypx) = 10
     Max number of k-points (npk) = ******
     Max angular momentum in pseudopotentials (lmaxx) =  4
     file Mg.pbe-n-kjpaw_psl.0.3.0.UPF: wavefunction(s)  3S renormalized
     Message from routine setup:
     using ibrav=0 with symmetry is DISCOURAGED, use correct ibrav instead
     [opt_tetra]  Optimized tetrahedron method is used.
 
     K-points division:     npool     =     120
     Subspace diagonalization in iterative solution of the eigenvalue problem:
     a serial algorithm will be used

 
     G-vector sticks info
     --------------------
     sticks:   dense  smooth     PW     G-vecs:    dense   smooth      PW
     Sum         649     313    109                15539     5485    1023
 
     Using Slab Decomposition
 


     bravais-lattice index     =            0
     lattice parameter (alat)  =       5.8298  a.u.
     unit-cell volume          =     195.9522 (a.u.)^3
     number of atoms/cell      =            3
     number of atomic types    =            2
     number of electrons       =         8.00
     number of Kohn-Sham states=            8
     kinetic-energy cutoff     =      35.0000  Ry
     charge density cutoff     =     280.0000  Ry
     scf convergence threshold =      3.0E-07
     mixing beta               =       0.3000
     number of iterations used =            8  plain     mixing
     Exchange-correlation= SLA  PW   PBX  PBC
                           (   1   4   3   4   0   0   0)

     celldm(1)=   5.829805  celldm(2)=   0.000000  celldm(3)=   0.000000
     celldm(4)=   0.000000  celldm(5)=   0.000000  celldm(6)=   0.000000

     crystal axes: (cart. coord. in units of alat)
               a(1) = (   1.000000   0.000000   0.000000 )  
               a(2) = (  -0.500000   0.866025   0.000000 )  
               a(3) = (   0.000000   0.000000   1.141977 )  

     reciprocal axes: (cart. coord. in units 2 pi/alat)
               b(1) = (  1.000000  0.577350  0.000000 )  
               b(2) = (  0.000000  1.154701  0.000000 )  
               b(3) = (  0.000000  0.000000  0.875674 )  


     PseudoPot. # 1 for B  read from file:
     /work/ga20/a20001/program/pseudo/b_pbe_v1.4.uspp.F.UPF
     MD5 check sum: cc6de2960df11db49a60e589f9ebb39b
     Pseudo is Ultrasoft + core correction, Zval =  3.0
     Generated by new atomic code, or converted to UPF format
     Using radial grid of  781 points,  4 beta functions with: 
                l(1) =   0
                l(2) =   0
                l(3) =   1
                l(4) =   1
     Q(r) pseudized with  8 coefficients,  rinner =    1.100   1.100   1.100


     PseudoPot. # 2 for Mg read from file:
     /work/ga20/a20001/program/pseudo/Mg.pbe-n-kjpaw_psl.0.3.0.UPF
     MD5 check sum: 24ecedc7f3e3cbe212e682f4413594e4
     Pseudo is Projector augmented-wave + core cor, Zval =  2.0
     Generated using "atomic" code by A. Dal Corso  v.5.0.99 svn rev. 10869
     Shape of augmentation charge: PSQ
     Using radial grid of 1129 points,  4 beta functions with: 
                l(1) =   0
                l(2) =   0
                l(3) =   1
                l(4) =   1
     Q(r) pseudized with 0 coefficients 


     atomic species   valence    mass     pseudopotential
        B              3.00    10.81100     B ( 1.00)
        Mg             2.00    24.30500     Mg( 1.00)

     Starting magnetic structure 
     atomic species   magnetization
        B            1.000
        Mg           1.000

     24 Sym. Ops., with inversion, found



   Cartesian axes

     site n.     atom                  positions (alat units)
         1           B   tau(   1) = (   0.5000000   0.2886751   0.5709887  )
         2           B   tau(   2) = (   0.0000000   0.5773503   0.5709887  )
         3           Mg  tau(   3) = (   0.0000000   0.0000000   0.0000000  )

     number of k points=   168 (tetrahedron method)

     Number of k-points >= 100: set verbosity='high' to print them.

     Dense  grid:    15539 G-vectors     FFT dimensions: (  32,  32,  36)

     Smooth grid:     5485 G-vectors     FFT dimensions: (  24,  24,  25)

     Estimated max dynamical RAM per process >      17.45 MB

     Estimated total dynamical RAM >       1.16 GB
     Generating pointlists ...
     new r_m :   0.2382 (alat units)  1.3884 (a.u.) for type    1
     new r_m :   0.3350 (alat units)  1.9527 (a.u.) for type    2

     Initial potential from superposition of free atoms

     starting charge       7.9985, renormalised to       8.0000
     Starting wfcs are   12 randomized atomic wfcs
     Checking if some PAW data can be deallocated... 

     total cpu time spent up to now is        2.4 secs

     Self-consistent Calculation

     iteration #  1     ecut=    35.00 Ry     beta= 0.30
     CG style diagonalization
     ethr =  1.00E-02,  avg # of iterations =  3.1

     total cpu time spent up to now is        2.8 secs

     total energy              =     -46.06634873 Ry
     estimated scf accuracy    <       0.27320263 Ry

     total magnetization       =     1.30 Bohr mag/cell
     absolute magnetization    =     1.33 Bohr mag/cell

     iteration #  2     ecut=    35.00 Ry     beta= 0.30
     CG style diagonalization
     ethr =  3.42E-03,  avg # of iterations =  3.1

     total cpu time spent up to now is        3.1 secs

     total energy              =     -46.35554949 Ry
     estimated scf accuracy    <       0.14320252 Ry

     total magnetization       =     0.86 Bohr mag/cell
     absolute magnetization    =     0.86 Bohr mag/cell

     iteration #  3     ecut=    35.00 Ry     beta= 0.30
     CG style diagonalization
     ethr =  1.79E-03,  avg # of iterations =  3.6

     total cpu time spent up to now is        3.4 secs

     total energy              =     -46.38343080 Ry
     estimated scf accuracy    <       0.06151812 Ry

     total magnetization       =     0.28 Bohr mag/cell
     absolute magnetization    =     0.28 Bohr mag/cell

     iteration #  4     ecut=    35.00 Ry     beta= 0.30
     CG style diagonalization
     ethr =  7.69E-04,  avg # of iterations =  3.1

     total cpu time spent up to now is        3.7 secs

     total energy              =     -46.42294702 Ry
     estimated scf accuracy    <       0.00846525 Ry

     total magnetization       =     0.43 Bohr mag/cell
     absolute magnetization    =     0.43 Bohr mag/cell

     iteration #  5     ecut=    35.00 Ry     beta= 0.30
     CG style diagonalization
     ethr =  1.06E-04,  avg # of iterations =  3.7

     total cpu time spent up to now is        4.0 secs

     total energy              =     -46.43019219 Ry
     estimated scf accuracy    <       0.00695915 Ry

     total magnetization       =     0.18 Bohr mag/cell
     absolute magnetization    =     0.18 Bohr mag/cell

     iteration #  6     ecut=    35.00 Ry     beta= 0.30
     CG style diagonalization
     ethr =  8.70E-05,  avg # of iterations =  3.2

     total cpu time spent up to now is        4.3 secs

     total energy              =     -46.43267299 Ry
     estimated scf accuracy    <       0.00006549 Ry

     total magnetization       =     0.04 Bohr mag/cell
     absolute magnetization    =     0.05 Bohr mag/cell

     iteration #  7     ecut=    35.00 Ry     beta= 0.30
     CG style diagonalization
     ethr =  8.19E-07,  avg # of iterations =  5.5

     total cpu time spent up to now is        4.7 secs

     total energy              =     -46.43304815 Ry
     estimated scf accuracy    <       0.00014175 Ry

     total magnetization       =     0.00 Bohr mag/cell
     absolute magnetization    =     0.01 Bohr mag/cell

     iteration #  8     ecut=    35.00 Ry     beta= 0.30
     CG style diagonalization
     ethr =  8.19E-07,  avg # of iterations =  3.5

     total cpu time spent up to now is        5.1 secs

     total energy              =     -46.43307325 Ry
     estimated scf accuracy    <       0.00000749 Ry

     total magnetization       =     0.00 Bohr mag/cell
     absolute magnetization    =     0.00 Bohr mag/cell

     iteration #  9     ecut=    35.00 Ry     beta= 0.30
     CG style diagonalization
     ethr =  9.36E-08,  avg # of iterations =  3.5

     total cpu time spent up to now is        5.4 secs

     total energy              =     -46.43307767 Ry
     estimated scf accuracy    <       0.00000068 Ry

     total magnetization       =     0.00 Bohr mag/cell
     absolute magnetization    =     0.00 Bohr mag/cell

     iteration # 10     ecut=    35.00 Ry     beta= 0.30
     CG style diagonalization
     ethr =  8.51E-09,  avg # of iterations =  4.1
 
     Magnetic moment per site  (integrated on atomic sphere of radius R)
     atom   1 (R=0.238)  charge=  1.3867  magn=  0.0000
     atom   2 (R=0.238)  charge=  1.3867  magn=  0.0000
     atom   3 (R=0.335)  charge=  0.5592  magn=  0.0000

     total cpu time spent up to now is        5.8 secs

     End of self-consistent calculation

     Number of k-points >= 100: set verbosity='high' to print the bands.

     the Fermi energy is     7.5654 ev

!    total energy              =     -46.43307845 Ry
     estimated scf accuracy    <       0.00000011 Ry

     The total energy is the sum of the following terms:
     one-electron contribution =       4.99101169 Ry
     hartree contribution      =       1.92555087 Ry
     xc contribution           =      -7.65265710 Ry
     ewald contribution        =     -14.39687284 Ry
     one-center paw contrib.   =     -31.30011107 Ry

     total magnetization       =     0.00 Bohr mag/cell
     absolute magnetization    =     0.00 Bohr mag/cell

     convergence has been achieved in  10 iterations

     Writing all to output data dir ./B2Mg1-108064.save/
 
     init_run     :      1.93s CPU      1.17s WALL (       1 calls)
     electrons    :      6.18s CPU      3.41s WALL (       1 calls)

     Called by init_run:
     wfcinit      :      0.18s CPU      0.12s WALL (       1 calls)
     potinit      :      0.57s CPU      0.32s WALL (       1 calls)
     hinit0       :      1.10s CPU      0.65s WALL (       1 calls)

     Called by electrons:
     c_bands      :      2.19s CPU      1.14s WALL (      10 calls)
     sum_band     :      1.03s CPU      0.56s WALL (      10 calls)
     v_of_rho     :      1.79s CPU      0.95s WALL (      11 calls)
     newd         :      0.04s CPU      0.04s WALL (      11 calls)
     PAW_pot      :      1.18s CPU      0.68s WALL (      11 calls)
     mix_rho      :      0.13s CPU      0.08s WALL (      10 calls)

     Called by c_bands:
     init_us_2    :      0.10s CPU      0.02s WALL (      63 calls)
     init_us_2:cp :      0.03s CPU      0.02s WALL (      63 calls)
     ccgdiagg     :      1.26s CPU      0.62s WALL (      30 calls)
     wfcrot       :      0.47s CPU      0.27s WALL (      30 calls)

     Called by *cgdiagg:
     h_psi        :      1.42s CPU      0.70s WALL (     631 calls)
     s_psi        :      0.08s CPU      0.07s WALL (    1232 calls)

     Called by h_psi:
     h_psi:calbec :      0.06s CPU      0.04s WALL (     631 calls)
     vloc_psi     :      1.22s CPU      0.58s WALL (     631 calls)
     add_vuspsi   :      0.06s CPU      0.05s WALL (     631 calls)
     hs_1psi      :      1.10s CPU      0.52s WALL (     601 calls)
     s_1psi       :      0.12s CPU      0.07s WALL (     601 calls)

     General routines
     calbec       :      0.06s CPU      0.06s WALL (    1262 calls)
     fft          :      0.58s CPU      0.37s WALL (     269 calls)
     ffts         :      0.20s CPU      0.12s WALL (      42 calls)
     fftw         :      0.75s CPU      0.48s WALL (    1946 calls)
     interpolate  :      0.21s CPU      0.13s WALL (      22 calls)
 
     Parallel routines
 
     PWSCF        :      9.57s CPU      6.40s WALL

 
   This run was terminated on:  12:46:41  19Mar2023            

=------------------------------------------------------------------------------=
   JOB DONE.
=------------------------------------------------------------------------------=
